                                                                
version 3
run UL-Synchronization-0-20240624-17:20:48-5157
attr configname UL-Synchronization
attr datetime 20240624-17:20:48
attr datetimef 20240624-172048
attr experiment UL-Synchronization
attr inifile omnetpp.ini
attr iterationvars ""
attr iterationvarsd ""
attr iterationvarsf ""
attr measurement ""
attr network UseCase
attr processid 5157
attr repetition 0
attr replication #0
attr resultdir results
attr runnumber 0
attr seedset 0
config image-path ../../inet/images:../../Simu5G-1.2.2/images
config *.switchTSN2.hasTimeSynchronization false
config *.DSTT2.hasTimeSynchronization false
config *.Actuator2.hasTimeSynchronization false
config **.hasTimeSynchronization true
config **.referenceClock "\"switchTSN.clock\""
config *.switchTSN.clock.oscillator.driftRate 10ppm
config **.oscillator.driftRate "uniform(10ppm, 100ppm)"
config *.switchTSN.gptp.gptpNodeType "\"MASTER_NODE\""
config *.switchTSN.gptp.masterPorts "[\"eth0\",\"eth1\",\"eth2\"]"
config *.switchTSN.gptp.slavePort "\"\""
config *.switch*.gptp.masterPorts "[\"eth0\"]"
config *.switch*.gptp.slavePort "\"eth1\""
config *.NSTT.gptp.masterPorts "[\"eth1\"]"
config *.NSTT.gptp.slavePort "\"eth0\""
config *.NSTT.gptp.slaveDomains [0]
config *.DSTT.gptp.masterPorts "[\"eth0\"]"
config *.DSTT.gptp.slavePort "\"eth1\""
config *.DSTT.gptp.masterDomains [0]
config *.switch5GC.clock.displayStringTextFormat "\"diff: %d\""
config *.switchTSN.clock.displayStringTextFormat "\"time: %T\""
config network UseCase
config sim-time-limit 200s
config **.eth*.bitrate 10Gbps
config **.mobility.typename ""
config *.ue.macCellId 0
config *.ue.masterId 0
config *.ue.nrMacCellId 1
config *.ue.nrMasterId 1
config *.ue.intHostAddress "\"Sensor Actuator DSTT\""
config *.ue2.macCellId 0
config *.ue2.masterId 0
config *.ue2.nrMacCellId 1
config *.ue2.nrMasterId 1
config **.amcType "\"NRAmc\""
config **.targetBler 0.001
config **.blerShift 5
config **.numerologyIndex 1
config **.useTdd true
config **.numBands 200
config *.NSTT.**.translatorType "\"NS_TT\""
config *.upf.clock.typename ""
config *.*TT.clock.typename IdealClock
config *.DSTT2.clock.typename IdealClock
config **.clock.oscillator.typename ConstantDriftOscillator
config *.*TT.gptp.typename Gptp5g
config *.*TT.gptp.fiveGPort "\"eth0\""

vector 0 UseCase.upf.eth[0].queue queueLength:vector ETV
attr autoWarmupFilter false
attr interpolationmode sample-hold
attr recordingmode vector
attr source "warmup(atomic(constant0(packetPushEnded) + count(packetPushStarted) - count(packetPulled) - count(packetRemoved) - count(packetDropped)))"
attr title "queue length"
attr unit pk
vector 1 UseCase.upf.eth[0].queue queueBitLength:vector ETV
attr autoWarmupFilter false
attr interpolationmode sample-hold
attr recordingmode vector
attr source "warmup(atomic(constant0(packetPushEnded) + sum(packetLength(packetPushStarted)) - sum(packetLength(packetPulled)) - sum(packetLength(packetRemoved)) - sum(packetLength(packetDropped))))"
attr title "queue bit length"
attr unit b
vector 2 UseCase.upf.eth[0].mac transmitting:vector ETV
attr interpolationmode sample-hold
attr recordingmode vector
attr source "count(transmissionStarted) - count(transmissionEnded)"
attr title "transmitting state"
attr type int
vector 3 UseCase.upf.ethIf.macLayer.queue queueLength:vector ETV
attr autoWarmupFilter false
attr interpolationmode sample-hold
attr recordingmode vector
attr source "warmup(atomic(constant0(packetPushEnded) + count(packetPushStarted) - count(packetPulled) - count(packetRemoved) - count(packetDropped)))"
attr title "queue length"
attr unit pk
vector 4 UseCase.upf.ethIf.macLayer.queue queueBitLength:vector ETV
attr autoWarmupFilter false
attr interpolationmode sample-hold
attr recordingmode vector
attr source "warmup(atomic(constant0(packetPushEnded) + sum(packetLength(packetPushStarted)) - sum(packetLength(packetPulled)) - sum(packetLength(packetRemoved)) - sum(packetLength(packetDropped))))"
attr title "queue bit length"
attr unit b
vector 5 UseCase.upf.ethIf.phyLayer.interFrameGapInserter interpacketGap:vector ETV
attr interpolationmode sample-hold
attr recordingmode vector
attr source "count(interpacketGapStarted) - count(interpacketGapEnded)"
attr title "interpacket gap state"
attr type int
vector 6 UseCase.upf.ethIf.phyLayer.transmitter transmitting:vector ETV
attr interpolationmode sample-hold
attr recordingmode vector
attr source "count(transmissionStarted) - count(transmissionEnded)"
attr title "transmitting state"
attr type int
vector 7 UseCase.upf.udp passedUpPk:vector(count) ETV
attr interpolationmode none
attr recordingmode vector(count)
attr source packetSentToUpper
attr title "packets passed up, count"
vector 8 UseCase.upf.udp droppedPkWrongPort:vector(count) ETV
attr interpolationmode none
attr recordingmode vector(count)
attr source packetDropReasonIsNoPortFound(packetDropped)
attr title "packets dropped (wrong port), count"
vector 9 UseCase.upf.udp droppedPkBadChecksum:vector(count) ETV
attr interpolationmode none
attr recordingmode vector(count)
attr source packetDropReasonIsIncorrectlyReceived(packetDropped)
attr title "packets dropped (checksum error), count"
vector 10 UseCase.gNB.pppIf.queue queueLength:vector ETV
attr autoWarmupFilter false
attr interpolationmode sample-hold
attr recordingmode vector
attr source "warmup(atomic(constant0(packetPushEnded) + count(packetPushStarted) - count(packetPulled) - count(packetRemoved) - count(packetDropped)))"
attr title "queue length"
attr unit pk
vector 11 UseCase.gNB.pppIf.queue queueBitLength:vector ETV
attr autoWarmupFilter false
attr interpolationmode sample-hold
attr recordingmode vector
attr source "warmup(atomic(constant0(packetPushEnded) + sum(packetLength(packetPushStarted)) - sum(packetLength(packetPulled)) - sum(packetLength(packetRemoved)) - sum(packetLength(packetDropped))))"
attr title "queue bit length"
attr unit b
vector 12 UseCase.gNB.pppIf.ppp transmissionState:vector ETV
attr interpolationmode sample-hold
attr recordingmode vector
attr source transmissionStateChanged
attr title "tx state"
vector 13 UseCase.gNB.pppMEHostIf.queue queueLength:vector ETV
attr autoWarmupFilter false
attr interpolationmode sample-hold
attr recordingmode vector
attr source "warmup(atomic(constant0(packetPushEnded) + count(packetPushStarted) - count(packetPulled) - count(packetRemoved) - count(packetDropped)))"
attr title "queue length"
attr unit pk
vector 14 UseCase.gNB.pppMEHostIf.queue queueBitLength:vector ETV
attr autoWarmupFilter false
attr interpolationmode sample-hold
attr recordingmode vector
attr source "warmup(atomic(constant0(packetPushEnded) + sum(packetLength(packetPushStarted)) - sum(packetLength(packetPulled)) - sum(packetLength(packetRemoved)) - sum(packetLength(packetDropped))))"
attr title "queue bit length"
attr unit b
vector 15 UseCase.gNB.pppMEHostIf.ppp transmissionState:vector ETV
attr interpolationmode sample-hold
attr recordingmode vector
attr source transmissionStateChanged
attr title "tx state"
vector 16 UseCase.gNB.udp passedUpPk:vector(count) ETV
attr interpolationmode none
attr recordingmode vector(count)
attr source packetSentToUpper
attr title "packets passed up, count"
vector 17 UseCase.gNB.udp droppedPkWrongPort:vector(count) ETV
attr interpolationmode none
attr recordingmode vector(count)
attr source packetDropReasonIsNoPortFound(packetDropped)
attr title "packets dropped (wrong port), count"
vector 18 UseCase.gNB.udp droppedPkBadChecksum:vector(count) ETV
attr interpolationmode none
attr recordingmode vector(count)
attr source packetDropReasonIsIncorrectlyReceived(packetDropped)
attr title "packets dropped (checksum error), count"
vector 19 UseCase.gNB.eth.macLayer.queue queueLength:vector ETV
attr autoWarmupFilter false
attr interpolationmode sample-hold
attr recordingmode vector
attr source "warmup(atomic(constant0(packetPushEnded) + count(packetPushStarted) - count(packetPulled) - count(packetRemoved) - count(packetDropped)))"
attr title "queue length"
attr unit pk
vector 20 UseCase.gNB.eth.macLayer.queue queueBitLength:vector ETV
attr autoWarmupFilter false
attr interpolationmode sample-hold
attr recordingmode vector
attr source "warmup(atomic(constant0(packetPushEnded) + sum(packetLength(packetPushStarted)) - sum(packetLength(packetPulled)) - sum(packetLength(packetRemoved)) - sum(packetLength(packetDropped))))"
attr title "queue bit length"
attr unit b
vector 21 UseCase.gNB.eth.phyLayer.interFrameGapInserter interpacketGap:vector ETV
attr interpolationmode sample-hold
attr recordingmode vector
attr source "count(interpacketGapStarted) - count(interpacketGapEnded)"
attr title "interpacket gap state"
attr type int
vector 22 UseCase.gNB.eth.phyLayer.transmitter transmitting:vector ETV
attr interpolationmode sample-hold
attr recordingmode vector
attr source "count(transmissionStarted) - count(transmissionEnded)"
attr title "transmitting state"
attr type int
vector 23 UseCase.ue.eth[0].queue queueLength:vector ETV
attr autoWarmupFilter false
attr interpolationmode sample-hold
attr recordingmode vector
attr source "warmup(atomic(constant0(packetPushEnded) + count(packetPushStarted) - count(packetPulled) - count(packetRemoved) - count(packetDropped)))"
attr title "queue length"
attr unit pk
vector 24 UseCase.ue.eth[0].queue queueBitLength:vector ETV
attr autoWarmupFilter false
attr interpolationmode sample-hold
attr recordingmode vector
attr source "warmup(atomic(constant0(packetPushEnded) + sum(packetLength(packetPushStarted)) - sum(packetLength(packetPulled)) - sum(packetLength(packetRemoved)) - sum(packetLength(packetDropped))))"
attr title "queue bit length"
attr unit b
vector 25 UseCase.ue.eth[0].mac transmitting:vector ETV
attr interpolationmode sample-hold
attr recordingmode vector
attr source "count(transmissionStarted) - count(transmissionEnded)"
attr title "transmitting state"
attr type int
vector 26 UseCase.ue.udp passedUpPk:vector(count) ETV
attr interpolationmode none
attr recordingmode vector(count)
attr source packetSentToUpper
attr title "packets passed up, count"
vector 27 UseCase.ue.udp droppedPkWrongPort:vector(count) ETV
attr interpolationmode none
attr recordingmode vector(count)
attr source packetDropReasonIsNoPortFound(packetDropped)
attr title "packets dropped (wrong port), count"
vector 28 UseCase.ue.udp droppedPkBadChecksum:vector(count) ETV
attr interpolationmode none
attr recordingmode vector(count)
attr source packetDropReasonIsIncorrectlyReceived(packetDropped)
attr title "packets dropped (checksum error), count"
vector 29 UseCase.DSTT.clock timeChanged:vector ETV
attr interpolationmode linear
attr recordingmode vector
attr title "Clock time"
vector 30 UseCase.DSTT.eth[0].queue queueLength:vector ETV
attr autoWarmupFilter false
attr interpolationmode sample-hold
attr recordingmode vector
attr source "warmup(atomic(constant0(packetPushEnded) + count(packetPushStarted) - count(packetPulled) - count(packetRemoved) - count(packetDropped)))"
attr title "queue length"
attr unit pk
vector 31 UseCase.DSTT.eth[0].queue queueBitLength:vector ETV
attr autoWarmupFilter false
attr interpolationmode sample-hold
attr recordingmode vector
attr source "warmup(atomic(constant0(packetPushEnded) + sum(packetLength(packetPushStarted)) - sum(packetLength(packetPulled)) - sum(packetLength(packetRemoved)) - sum(packetLength(packetDropped))))"
attr title "queue bit length"
attr unit b
vector 32 UseCase.DSTT.eth[0].mac transmitting:vector ETV
attr interpolationmode sample-hold
attr recordingmode vector
attr source "count(transmissionStarted) - count(transmissionEnded)"
attr title "transmitting state"
attr type int
vector 33 UseCase.DSTT.eth[1].queue queueLength:vector ETV
attr autoWarmupFilter false
attr interpolationmode sample-hold
attr recordingmode vector
attr source "warmup(atomic(constant0(packetPushEnded) + count(packetPushStarted) - count(packetPulled) - count(packetRemoved) - count(packetDropped)))"
attr title "queue length"
attr unit pk
vector 34 UseCase.DSTT.eth[1].queue queueBitLength:vector ETV
attr autoWarmupFilter false
attr interpolationmode sample-hold
attr recordingmode vector
attr source "warmup(atomic(constant0(packetPushEnded) + sum(packetLength(packetPushStarted)) - sum(packetLength(packetPulled)) - sum(packetLength(packetRemoved)) - sum(packetLength(packetDropped))))"
attr title "queue bit length"
attr unit b
vector 35 UseCase.DSTT.eth[1].mac transmitting:vector ETV
attr interpolationmode sample-hold
attr recordingmode vector
attr source "count(transmissionStarted) - count(transmissionEnded)"
attr title "transmitting state"
attr type int
vector 36 UseCase.DSTT.udp passedUpPk:vector(count) ETV
attr interpolationmode none
attr recordingmode vector(count)
attr source packetSentToUpper
attr title "packets passed up, count"
vector 37 UseCase.DSTT.udp droppedPkWrongPort:vector(count) ETV
attr interpolationmode none
attr recordingmode vector(count)
attr source packetDropReasonIsNoPortFound(packetDropped)
attr title "packets dropped (wrong port), count"
vector 38 UseCase.DSTT.udp droppedPkBadChecksum:vector(count) ETV
attr interpolationmode none
attr recordingmode vector(count)
attr source packetDropReasonIsIncorrectlyReceived(packetDropped)
attr title "packets dropped (checksum error), count"
vector 39 UseCase.NSTT.clock timeChanged:vector ETV
attr interpolationmode linear
attr recordingmode vector
attr title "Clock time"
vector 40 UseCase.NSTT.eth[0].queue queueLength:vector ETV
attr autoWarmupFilter false
attr interpolationmode sample-hold
attr recordingmode vector
attr source "warmup(atomic(constant0(packetPushEnded) + count(packetPushStarted) - count(packetPulled) - count(packetRemoved) - count(packetDropped)))"
attr title "queue length"
attr unit pk
vector 41 UseCase.NSTT.eth[0].queue queueBitLength:vector ETV
attr autoWarmupFilter false
attr interpolationmode sample-hold
attr recordingmode vector
attr source "warmup(atomic(constant0(packetPushEnded) + sum(packetLength(packetPushStarted)) - sum(packetLength(packetPulled)) - sum(packetLength(packetRemoved)) - sum(packetLength(packetDropped))))"
attr title "queue bit length"
attr unit b
vector 42 UseCase.NSTT.eth[0].mac transmitting:vector ETV
attr interpolationmode sample-hold
attr recordingmode vector
attr source "count(transmissionStarted) - count(transmissionEnded)"
attr title "transmitting state"
attr type int
vector 43 UseCase.NSTT.eth[1].queue queueLength:vector ETV
attr autoWarmupFilter false
attr interpolationmode sample-hold
attr recordingmode vector
attr source "warmup(atomic(constant0(packetPushEnded) + count(packetPushStarted) - count(packetPulled) - count(packetRemoved) - count(packetDropped)))"
attr title "queue length"
attr unit pk
vector 44 UseCase.NSTT.eth[1].queue queueBitLength:vector ETV
attr autoWarmupFilter false
attr interpolationmode sample-hold
attr recordingmode vector
attr source "warmup(atomic(constant0(packetPushEnded) + sum(packetLength(packetPushStarted)) - sum(packetLength(packetPulled)) - sum(packetLength(packetRemoved)) - sum(packetLength(packetDropped))))"
attr title "queue bit length"
attr unit b
vector 45 UseCase.NSTT.eth[1].mac transmitting:vector ETV
attr interpolationmode sample-hold
attr recordingmode vector
attr source "count(transmissionStarted) - count(transmissionEnded)"
attr title "transmitting state"
attr type int
vector 46 UseCase.NSTT.udp passedUpPk:vector(count) ETV
attr interpolationmode none
attr recordingmode vector(count)
attr source packetSentToUpper
attr title "packets passed up, count"
vector 47 UseCase.NSTT.udp droppedPkWrongPort:vector(count) ETV
attr interpolationmode none
attr recordingmode vector(count)
attr source packetDropReasonIsNoPortFound(packetDropped)
attr title "packets dropped (wrong port), count"
vector 48 UseCase.NSTT.udp droppedPkBadChecksum:vector(count) ETV
attr interpolationmode none
attr recordingmode vector(count)
attr source packetDropReasonIsIncorrectlyReceived(packetDropped)
attr title "packets dropped (checksum error), count"
vector 49 UseCase.Actuator.eth[0].macLayer.queue queueLength:vector ETV
attr autoWarmupFilter false
attr interpolationmode sample-hold
attr recordingmode vector
attr source "warmup(atomic(constant0(packetPushEnded) + count(packetPushStarted) - count(packetPulled) - count(packetRemoved) - count(packetDropped)))"
attr title "queue length"
attr unit pk
vector 50 UseCase.Actuator.eth[0].macLayer.queue queueBitLength:vector ETV
attr autoWarmupFilter false
attr interpolationmode sample-hold
attr recordingmode vector
attr source "warmup(atomic(constant0(packetPushEnded) + sum(packetLength(packetPushStarted)) - sum(packetLength(packetPulled)) - sum(packetLength(packetRemoved)) - sum(packetLength(packetDropped))))"
attr title "queue bit length"
attr unit b
vector 51 UseCase.Actuator.eth[0].phyLayer.interFrameGapInserter interpacketGap:vector ETV
attr interpolationmode sample-hold
attr recordingmode vector
attr source "count(interpacketGapStarted) - count(interpacketGapEnded)"
attr title "interpacket gap state"
attr type int
vector 52 UseCase.Actuator.eth[0].phyLayer.transmitter transmitting:vector ETV
attr interpolationmode sample-hold
attr recordingmode vector
attr source "count(transmissionStarted) - count(transmissionEnded)"
attr title "transmitting state"
attr type int
vector 53 UseCase.Actuator.udp passedUpPk:vector(count) ETV
attr interpolationmode none
attr recordingmode vector(count)
attr source packetSentToUpper
attr title "packets passed up, count"
vector 54 UseCase.Actuator.udp droppedPkWrongPort:vector(count) ETV
attr interpolationmode none
attr recordingmode vector(count)
attr source packetDropReasonIsNoPortFound(packetDropped)
attr title "packets dropped (wrong port), count"
vector 55 UseCase.Actuator.udp droppedPkBadChecksum:vector(count) ETV
attr interpolationmode none
attr recordingmode vector(count)
attr source packetDropReasonIsIncorrectlyReceived(packetDropped)
attr title "packets dropped (checksum error), count"
vector 56 UseCase.Actuator.gptp rateRatio:vector ETV
attr interpolationmode sample-hold
attr recordingmode vector
vector 57 UseCase.Actuator.gptp correctionField:vector ETV
attr interpolationmode linear
attr recordingmode vector
vector 58 UseCase.Actuator.gptp localTime:vector ETV
attr "" ""
attr interpolationmode linear
attr recordingmode vector
vector 59 UseCase.Actuator.gptp timeDifference:vector ETV
attr interpolationmode linear
attr recordingmode vector
vector 60 UseCase.switch5GC.gptp rateRatio:vector ETV
attr interpolationmode sample-hold
attr recordingmode vector
vector 61 UseCase.switch5GC.gptp correctionField:vector ETV
attr interpolationmode linear
attr recordingmode vector
vector 62 UseCase.switch5GC.gptp localTime:vector ETV
attr "" ""
attr interpolationmode linear
attr recordingmode vector
vector 63 UseCase.switch5GC.gptp timeDifference:vector ETV
attr interpolationmode linear
attr recordingmode vector
vector 64 UseCase.switch5GC.eth[0].macLayer.queue queueLength:vector ETV
attr autoWarmupFilter false
attr interpolationmode sample-hold
attr recordingmode vector
attr source "warmup(atomic(constant0(packetPushEnded) + count(packetPushStarted) - count(packetPulled) - count(packetRemoved) - count(packetDropped)))"
attr title "queue length"
attr unit pk
vector 65 UseCase.switch5GC.eth[0].macLayer.queue queueBitLength:vector ETV
attr autoWarmupFilter false
attr interpolationmode sample-hold
attr recordingmode vector
attr source "warmup(atomic(constant0(packetPushEnded) + sum(packetLength(packetPushStarted)) - sum(packetLength(packetPulled)) - sum(packetLength(packetRemoved)) - sum(packetLength(packetDropped))))"
attr title "queue bit length"
attr unit b
vector 66 UseCase.switch5GC.eth[0].phyLayer.interFrameGapInserter interpacketGap:vector ETV
attr interpolationmode sample-hold
attr recordingmode vector
attr source "count(interpacketGapStarted) - count(interpacketGapEnded)"
attr title "interpacket gap state"
attr type int
vector 67 UseCase.switch5GC.eth[0].phyLayer.transmitter transmitting:vector ETV
attr interpolationmode sample-hold
attr recordingmode vector
attr source "count(transmissionStarted) - count(transmissionEnded)"
attr title "transmitting state"
attr type int
vector 68 UseCase.switch5GC.eth[1].macLayer.queue queueLength:vector ETV
attr autoWarmupFilter false
attr interpolationmode sample-hold
attr recordingmode vector
attr source "warmup(atomic(constant0(packetPushEnded) + count(packetPushStarted) - count(packetPulled) - count(packetRemoved) - count(packetDropped)))"
attr title "queue length"
attr unit pk
vector 69 UseCase.switch5GC.eth[1].macLayer.queue queueBitLength:vector ETV
attr autoWarmupFilter false
attr interpolationmode sample-hold
attr recordingmode vector
attr source "warmup(atomic(constant0(packetPushEnded) + sum(packetLength(packetPushStarted)) - sum(packetLength(packetPulled)) - sum(packetLength(packetRemoved)) - sum(packetLength(packetDropped))))"
attr title "queue bit length"
attr unit b
vector 70 UseCase.switch5GC.eth[1].phyLayer.interFrameGapInserter interpacketGap:vector ETV
attr interpolationmode sample-hold
attr recordingmode vector
attr source "count(interpacketGapStarted) - count(interpacketGapEnded)"
attr title "interpacket gap state"
attr type int
vector 71 UseCase.switch5GC.eth[1].phyLayer.transmitter transmitting:vector ETV
attr interpolationmode sample-hold
attr recordingmode vector
attr source "count(transmissionStarted) - count(transmissionEnded)"
attr title "transmitting state"
attr type int
vector 72 UseCase.switchTSN.gptp rateRatio:vector ETV
attr interpolationmode sample-hold
attr recordingmode vector
vector 73 UseCase.switchTSN.gptp correctionField:vector ETV
attr interpolationmode linear
attr recordingmode vector
vector 74 UseCase.switchTSN.gptp localTime:vector ETV
attr "" ""
attr interpolationmode linear
attr recordingmode vector
vector 75 UseCase.switchTSN.gptp timeDifference:vector ETV
attr interpolationmode linear
attr recordingmode vector
vector 76 UseCase.switchTSN.eth[0].macLayer.queue queueLength:vector ETV
attr autoWarmupFilter false
attr interpolationmode sample-hold
attr recordingmode vector
attr source "warmup(atomic(constant0(packetPushEnded) + count(packetPushStarted) - count(packetPulled) - count(packetRemoved) - count(packetDropped)))"
attr title "queue length"
attr unit pk
vector 77 UseCase.switchTSN.eth[0].macLayer.queue queueBitLength:vector ETV
attr autoWarmupFilter false
attr interpolationmode sample-hold
attr recordingmode vector
attr source "warmup(atomic(constant0(packetPushEnded) + sum(packetLength(packetPushStarted)) - sum(packetLength(packetPulled)) - sum(packetLength(packetRemoved)) - sum(packetLength(packetDropped))))"
attr title "queue bit length"
attr unit b
vector 78 UseCase.switchTSN.eth[0].phyLayer.interFrameGapInserter interpacketGap:vector ETV
attr interpolationmode sample-hold
attr recordingmode vector
attr source "count(interpacketGapStarted) - count(interpacketGapEnded)"
attr title "interpacket gap state"
attr type int
vector 79 UseCase.switchTSN.eth[0].phyLayer.transmitter transmitting:vector ETV
attr interpolationmode sample-hold
attr recordingmode vector
attr source "count(transmissionStarted) - count(transmissionEnded)"
attr title "transmitting state"
attr type int
vector 80 UseCase.switchTSN.eth[1].macLayer.queue queueLength:vector ETV
attr autoWarmupFilter false
attr interpolationmode sample-hold
attr recordingmode vector
attr source "warmup(atomic(constant0(packetPushEnded) + count(packetPushStarted) - count(packetPulled) - count(packetRemoved) - count(packetDropped)))"
attr title "queue length"
attr unit pk
vector 81 UseCase.switchTSN.eth[1].macLayer.queue queueBitLength:vector ETV
attr autoWarmupFilter false
attr interpolationmode sample-hold
attr recordingmode vector
attr source "warmup(atomic(constant0(packetPushEnded) + sum(packetLength(packetPushStarted)) - sum(packetLength(packetPulled)) - sum(packetLength(packetRemoved)) - sum(packetLength(packetDropped))))"
attr title "queue bit length"
attr unit b
vector 82 UseCase.switchTSN.eth[1].phyLayer.interFrameGapInserter interpacketGap:vector ETV
attr interpolationmode sample-hold
attr recordingmode vector
attr source "count(interpacketGapStarted) - count(interpacketGapEnded)"
attr title "interpacket gap state"
attr type int
vector 83 UseCase.switchTSN.eth[1].phyLayer.transmitter transmitting:vector ETV
attr interpolationmode sample-hold
attr recordingmode vector
attr source "count(transmissionStarted) - count(transmissionEnded)"
attr title "transmitting state"
attr type int
vector 84 UseCase.switchTSN.eth[2].macLayer.queue queueLength:vector ETV
attr autoWarmupFilter false
attr interpolationmode sample-hold
attr recordingmode vector
attr source "warmup(atomic(constant0(packetPushEnded) + count(packetPushStarted) - count(packetPulled) - count(packetRemoved) - count(packetDropped)))"
attr title "queue length"
attr unit pk
vector 85 UseCase.switchTSN.eth[2].macLayer.queue queueBitLength:vector ETV
attr autoWarmupFilter false
attr interpolationmode sample-hold
attr recordingmode vector
attr source "warmup(atomic(constant0(packetPushEnded) + sum(packetLength(packetPushStarted)) - sum(packetLength(packetPulled)) - sum(packetLength(packetRemoved)) - sum(packetLength(packetDropped))))"
attr title "queue bit length"
attr unit b
vector 86 UseCase.switchTSN.eth[2].phyLayer.interFrameGapInserter interpacketGap:vector ETV
attr interpolationmode sample-hold
attr recordingmode vector
attr source "count(interpacketGapStarted) - count(interpacketGapEnded)"
attr title "interpacket gap state"
attr type int
vector 87 UseCase.switchTSN.eth[2].phyLayer.transmitter transmitting:vector ETV
attr interpolationmode sample-hold
attr recordingmode vector
attr source "count(transmissionStarted) - count(transmissionEnded)"
attr title "transmitting state"
attr type int
vector 88 UseCase.PLC.eth[0].macLayer.queue queueLength:vector ETV
attr autoWarmupFilter false
attr interpolationmode sample-hold
attr recordingmode vector
attr source "warmup(atomic(constant0(packetPushEnded) + count(packetPushStarted) - count(packetPulled) - count(packetRemoved) - count(packetDropped)))"
attr title "queue length"
attr unit pk
vector 89 UseCase.PLC.eth[0].macLayer.queue queueBitLength:vector ETV
attr autoWarmupFilter false
attr interpolationmode sample-hold
attr recordingmode vector
attr source "warmup(atomic(constant0(packetPushEnded) + sum(packetLength(packetPushStarted)) - sum(packetLength(packetPulled)) - sum(packetLength(packetRemoved)) - sum(packetLength(packetDropped))))"
attr title "queue bit length"
attr unit b
vector 90 UseCase.PLC.eth[0].phyLayer.interFrameGapInserter interpacketGap:vector ETV
attr interpolationmode sample-hold
attr recordingmode vector
attr source "count(interpacketGapStarted) - count(interpacketGapEnded)"
attr title "interpacket gap state"
attr type int
vector 91 UseCase.PLC.eth[0].phyLayer.transmitter transmitting:vector ETV
attr interpolationmode sample-hold
attr recordingmode vector
attr source "count(transmissionStarted) - count(transmissionEnded)"
attr title "transmitting state"
attr type int
vector 92 UseCase.PLC.udp passedUpPk:vector(count) ETV
attr interpolationmode none
attr recordingmode vector(count)
attr source packetSentToUpper
attr title "packets passed up, count"
vector 93 UseCase.PLC.udp droppedPkWrongPort:vector(count) ETV
attr interpolationmode none
attr recordingmode vector(count)
attr source packetDropReasonIsNoPortFound(packetDropped)
attr title "packets dropped (wrong port), count"
vector 94 UseCase.PLC.udp droppedPkBadChecksum:vector(count) ETV
attr interpolationmode none
attr recordingmode vector(count)
attr source packetDropReasonIsIncorrectlyReceived(packetDropped)
attr title "packets dropped (checksum error), count"
vector 95 UseCase.PLC.gptp rateRatio:vector ETV
attr interpolationmode sample-hold
attr recordingmode vector
vector 96 UseCase.PLC.gptp correctionField:vector ETV
attr interpolationmode linear
attr recordingmode vector
vector 97 UseCase.PLC.gptp localTime:vector ETV
attr "" ""
attr interpolationmode linear
attr recordingmode vector
vector 98 UseCase.PLC.gptp timeDifference:vector ETV
attr interpolationmode linear
attr recordingmode vector
vector 99 UseCase.Sensor.eth[0].macLayer.queue queueLength:vector ETV
attr autoWarmupFilter false
attr interpolationmode sample-hold
attr recordingmode vector
attr source "warmup(atomic(constant0(packetPushEnded) + count(packetPushStarted) - count(packetPulled) - count(packetRemoved) - count(packetDropped)))"
attr title "queue length"
attr unit pk
vector 100 UseCase.Sensor.eth[0].macLayer.queue queueBitLength:vector ETV
attr autoWarmupFilter false
attr interpolationmode sample-hold
attr recordingmode vector
attr source "warmup(atomic(constant0(packetPushEnded) + sum(packetLength(packetPushStarted)) - sum(packetLength(packetPulled)) - sum(packetLength(packetRemoved)) - sum(packetLength(packetDropped))))"
attr title "queue bit length"
attr unit b
vector 101 UseCase.Sensor.eth[0].phyLayer.interFrameGapInserter interpacketGap:vector ETV
attr interpolationmode sample-hold
attr recordingmode vector
attr source "count(interpacketGapStarted) - count(interpacketGapEnded)"
attr title "interpacket gap state"
attr type int
vector 102 UseCase.Sensor.eth[0].phyLayer.transmitter transmitting:vector ETV
attr interpolationmode sample-hold
attr recordingmode vector
attr source "count(transmissionStarted) - count(transmissionEnded)"
attr title "transmitting state"
attr type int
vector 103 UseCase.Sensor.udp passedUpPk:vector(count) ETV
attr interpolationmode none
attr recordingmode vector(count)
attr source packetSentToUpper
attr title "packets passed up, count"
vector 104 UseCase.Sensor.udp droppedPkWrongPort:vector(count) ETV
attr interpolationmode none
attr recordingmode vector(count)
attr source packetDropReasonIsNoPortFound(packetDropped)
attr title "packets dropped (wrong port), count"
vector 105 UseCase.Sensor.udp droppedPkBadChecksum:vector(count) ETV
attr interpolationmode none