file 26900 1709497261                                           
version 3
run UL-test-0-20240303-17:20:54-26664
attr configname UL-test
attr datetime 20240303-17:20:54
attr datetimef 20240303-172054
attr experiment UL-test
attr inifile omnetpp.ini
attr iterationvars ""
attr iterationvarsd ""
attr iterationvarsf ""
attr measurement ""
attr network UseCase
attr processid 26664
attr repetition 0
attr replication #0
attr resultdir results
attr runnumber 0
attr seedset 0
config image-path ../../inet/images:../../Simu5G/images
config *.TsnDS.numApps 1
config *.TsnDS.app[0].typename UdpBasicApp
config *.TsnDS.app[0].display-name TsnDS-Packet
config *.TsnDS.app[0].destAddresses "\"TsnNS\""
config *.TsnDS.app[0].destPort 1001
config *.TsnDS.app[0].localPort 1000
config *.TsnDS.app[0].messageLength 32B
config *.TsnDS.app[0].sendInterval 100ms
config *.TsnDS.app[0].startTime 0ms
config *.TsnNS.numApps 1
config *.TsnNS.app[0].typename UdpBasicApp
config *.TsnNS.app[0].destPort 1000
config *.TsnNS.app[0].localPort 1001
config *.TsnNS.app[0].messageLength 32B
config *.TsnNS.app[0].sendInterval 0ms
config network UseCase
config **.eth[*].bitrate 10Gbps
config **.eth*.bitrate 10Gbps
config **.mobility.typename ""
config *.ue.macCellId 0
config *.ue.masterId 0
config *.ue.nrMacCellId 1
config *.ue.nrMasterId 1
config *.ue.intHostAddress "\"TsnDS\""

vector 0 UseCase.upf.eth[0].queue queueLength:vector ETV
attr autoWarmupFilter false
attr interpolationmode sample-hold
attr recordingmode vector
attr source "warmup(atomic(constant0(packetPushEnded) + count(packetPushStarted) - count(packetPulled) - count(packetRemoved) - count(packetDropped)))"
attr title "queue length"
attr unit pk
vector 1 UseCase.upf.eth[0].queue queueBitLength:vector ETV
attr autoWarmupFilter false
attr interpolationmode sample-hold
attr recordingmode vector
attr source "warmup(atomic(constant0(packetPushEnded) + sum(packetLength(packetPushStarted)) - sum(packetLength(packetPulled)) - sum(packetLength(packetRemoved)) - sum(packetLength(packetDropped))))"
attr title "queue bit length"
attr unit b
vector 2 UseCase.upf.ethIf.macLayer.queue queueLength:vector ETV
attr autoWarmupFilter false
attr interpolationmode sample-hold
attr recordingmode vector
attr source "warmup(atomic(constant0(packetPushEnded) + count(packetPushStarted) - count(packetPulled) - count(packetRemoved) - count(packetDropped)))"
attr title "queue length"
attr unit pk
vector 3 UseCase.upf.ethIf.macLayer.queue queueBitLength:vector ETV
attr autoWarmupFilter false
attr interpolationmode sample-hold
attr recordingmode vector
attr source "warmup(atomic(constant0(packetPushEnded) + sum(packetLength(packetPushStarted)) - sum(packetLength(packetPulled)) - sum(packetLength(packetRemoved)) - sum(packetLength(packetDropped))))"
attr title "queue bit length"
attr unit b
vector 4 UseCase.upf.ethIf.phyLayer.interFrameGapInserter interpacketGap:vector ETV
attr interpolationmode sample-hold
attr recordingmode vector
attr source "count(interpacketGapStarted) - count(interpacketGapEnded)"
attr title "interpacket gap state"
attr type int
vector 5 UseCase.upf.ethIf.phyLayer.transmitter transmitting:vector ETV
attr interpolationmode sample-hold
attr recordingmode vector
attr source "count(transmissionStarted) - count(transmissionEnded)"
attr title "transmitting state"
attr type int
vector 6 UseCase.upf.udp passedUpPk:vector(count) ETV
attr interpolationmode none
attr recordingmode vector(count)
attr source packetSentToUpper
attr title "packets passed up, count"
vector 7 UseCase.upf.udp droppedPkWrongPort:vector(count) ETV
attr interpolationmode none
attr recordingmode vector(count)
attr source packetDropReasonIsNoPortFound(packetDropped)
attr title "packets dropped (wrong port), count"
vector 8 UseCase.upf.udp droppedPkBadChecksum:vector(count) ETV
attr interpolationmode none
attr recordingmode vector(count)
attr source packetDropReasonIsIncorrectlyReceived(packetDropped)
attr title "packets dropped (checksum error), count"
vector 9 UseCase.gNB.pppIf.queue queueLength:vector ETV
attr autoWarmupFilter false
attr interpolationmode sample-hold
attr recordingmode vector
attr source "warmup(atomic(constant0(packetPushEnded) + count(packetPushStarted) - count(packetPulled) - count(packetRemoved) - count(packetDropped)))"
attr title "queue length"
attr unit pk
vector 10 UseCase.gNB.pppIf.queue queueBitLength:vector ETV
attr autoWarmupFilter false
attr interpolationmode sample-hold
attr recordingmode vector
attr source "warmup(atomic(constant0(packetPushEnded) + sum(packetLength(packetPushStarted)) - sum(packetLength(packetPulled)) - sum(packetLength(packetRemoved)) - sum(packetLength(packetDropped))))"
attr title "queue bit length"
attr unit b
vector 11 UseCase.gNB.pppIf.ppp transmissionState:vector ETV
attr interpolationmode sample-hold
attr recordingmode vector
attr source transmissionStateChanged
attr title "tx state"
vector 12 UseCase.gNB.pppMEHostIf.queue queueLength:vector ETV
attr autoWarmupFilter false
attr interpolationmode sample-hold
attr recordingmode vector
attr source "warmup(atomic(constant0(packetPushEnded) + count(packetPushStarted) - count(packetPulled) - count(packetRemoved) - count(packetDropped)))"
attr title "queue length"
attr unit pk
vector 13 UseCase.gNB.pppMEHostIf.queue queueBitLength:vector ETV
attr autoWarmupFilter false
attr interpolationmode sample-hold
attr recordingmode vector
attr source "warmup(atomic(constant0(packetPushEnded) + sum(packetLength(packetPushStarted)) - sum(packetLength(packetPulled)) - sum(packetLength(packetRemoved)) - sum(packetLength(packetDropped))))"
attr title "queue bit length"
attr unit b
vector 14 UseCase.gNB.pppMEHostIf.ppp transmissionState:vector ETV
attr interpolationmode sample-hold
attr recordingmode vector
attr source transmissionStateChanged
attr title "tx state"
vector 15 UseCase.gNB.udp passedUpPk:vector(count) ETV
attr interpolationmode none
attr recordingmode vector(count)
attr source packetSentToUpper
attr title "packets passed up, count"
vector 16 UseCase.gNB.udp droppedPkWrongPort:vector(count) ETV
attr interpolationmode none
attr recordingmode vector(count)
attr source packetDropReasonIsNoPortFound(packetDropped)
attr title "packets dropped (wrong port), count"
vector 17 UseCase.gNB.udp droppedPkBadChecksum:vector(count) ETV
attr interpolationmode none
attr recordingmode vector(count)
attr source packetDropReasonIsIncorrectlyReceived(packetDropped)
attr title "packets dropped (checksum error), count"
vector 18 UseCase.gNB.eth.macLayer.queue queueLength:vector ETV
attr autoWarmupFilter false
attr interpolationmode sample-hold
attr recordingmode vector
attr source "warmup(atomic(constant0(packetPushEnded) + count(packetPushStarted) - count(packetPulled) - count(packetRemoved) - count(packetDropped)))"
attr title "queue length"
attr unit pk
vector 19 UseCase.gNB.eth.macLayer.queue queueBitLength:vector ETV
attr autoWarmupFilter false
attr interpolationmode sample-hold
attr recordingmode vector
attr source "warmup(atomic(constant0(packetPushEnded) + sum(packetLength(packetPushStarted)) - sum(packetLength(packetPulled)) - sum(packetLength(packetRemoved)) - sum(packetLength(packetDropped))))"
attr title "queue bit length"
attr unit b
vector 20 UseCase.gNB.eth.phyLayer.interFrameGapInserter interpacketGap:vector ETV
attr interpolationmode sample-hold
attr recordingmode vector
attr source "count(interpacketGapStarted) - count(interpacketGapEnded)"
attr title "interpacket gap state"
attr type int
vector 21 UseCase.gNB.eth.phyLayer.transmitter transmitting:vector ETV
attr interpolationmode sample-hold
attr recordingmode vector
attr source "count(transmissionStarted) - count(transmissionEnded)"
attr title "transmitting state"
attr type int
vector 22 UseCase.ue.eth[0].queue queueLength:vector ETV
attr autoWarmupFilter false
attr interpolationmode sample-hold
attr recordingmode vector
attr source "warmup(atomic(constant0(packetPushEnded) + count(packetPushStarted) - count(packetPulled) - count(packetRemoved) - count(packetDropped)))"
attr title "queue length"
attr unit pk
vector 23 UseCase.ue.eth[0].queue queueBitLength:vector ETV
attr autoWarmupFilter false
attr interpolationmode sample-hold
attr recordingmode vector
attr source "warmup(atomic(constant0(packetPushEnded) + sum(packetLength(packetPushStarted)) - sum(packetLength(packetPulled)) - sum(packetLength(packetRemoved)) - sum(packetLength(packetDropped))))"
attr title "queue bit length"
attr unit b
vector 24 UseCase.ue.udp passedUpPk:vector(count) ETV
attr interpolationmode none
attr recordingmode vector(count)
attr source packetSentToUpper
attr title "packets passed up, count"
vector 25 UseCase.ue.udp droppedPkWrongPort:vector(count) ETV
attr interpolationmode none
attr recordingmode vector(count)
attr source packetDropReasonIsNoPortFound(packetDropped)
attr title "packets dropped (wrong port), count"
vector 26 UseCase.ue.udp droppedPkBadChecksum:vector(count) ETV
attr interpolationmode none
attr recordingmode vector(count)
attr source packetDropReasonIsIncorrectlyReceived(packetDropped)
attr title "packets dropped (checksum error), count"
vector 27 UseCase.DSTT.eth[0].macLayer.queue queueLength:vector ETV
attr autoWarmupFilter false
attr interpolationmode sample-hold
attr recordingmode vector
attr source "warmup(atomic(constant0(packetPushEnded) + count(packetPushStarted) - count(packetPulled) - count(packetRemoved) - count(packetDropped)))"
attr title "queue length"
attr unit pk
vector 28 UseCase.DSTT.eth[0].macLayer.queue queueBitLength:vector ETV
attr autoWarmupFilter false
attr interpolationmode sample-hold
attr recordingmode vector
attr source "warmup(atomic(constant0(packetPushEnded) + sum(packetLength(packetPushStarted)) - sum(packetLength(packetPulled)) - sum(packetLength(packetRemoved)) - sum(packetLength(packetDropped))))"
attr title "queue bit length"
attr unit b
vector 29 UseCase.DSTT.eth[0].phyLayer.interFrameGapInserter interpacketGap:vector ETV
attr interpolationmode sample-hold
attr recordingmode vector
attr source "count(interpacketGapStarted) - count(interpacketGapEnded)"
attr title "interpacket gap state"
attr type int
vector 30 UseCase.DSTT.eth[0].phyLayer.transmitter transmitting:vector ETV
attr interpolationmode sample-hold
attr recordingmode vector
attr source "count(transmissionStarted) - count(transmissionEnded)"
attr title "transmitting state"
attr type int
vector 31 UseCase.DSTT.eth[1].macLayer.queue queueLength:vector ETV
attr autoWarmupFilter false
attr interpolationmode sample-hold
attr recordingmode vector
attr source "warmup(atomic(constant0(packetPushEnded) + count(packetPushStarted) - count(packetPulled) - count(packetRemoved) - count(packetDropped)))"
attr title "queue length"
attr unit pk
vector 32 UseCase.DSTT.eth[1].macLayer.queue queueBitLength:vector ETV
attr autoWarmupFilter false
attr interpolationmode sample-hold
attr recordingmode vector
attr source "warmup(atomic(constant0(packetPushEnded) + sum(packetLength(packetPushStarted)) - sum(packetLength(packetPulled)) - sum(packetLength(packetRemoved)) - sum(packetLength(packetDropped))))"
attr title "queue bit length"
attr unit b
vector 33 UseCase.DSTT.eth[1].phyLayer.interFrameGapInserter interpacketGap:vector ETV
attr interpolationmode sample-hold
attr recordingmode vector
attr source "count(interpacketGapStarted) - count(interpacketGapEnded)"
attr title "interpacket gap state"
attr type int
vector 34 UseCase.DSTT.eth[1].phyLayer.transmitter transmitting:vector ETV
attr interpolationmode sample-hold
attr recordingmode vector
attr source "count(transmissionStarted) - count(transmissionEnded)"
attr title "transmitting state"
attr type int
vector 35 UseCase.DSTT.udp passedUpPk:vector(count) ETV
attr interpolationmode none
attr recordingmode vector(count)
attr source packetSentToUpper
attr title "packets passed up, count"
vector 36 UseCase.DSTT.udp droppedPkWrongPort:vector(count) ETV
attr interpolationmode none
attr recordingmode vector(count)
attr source packetDropReasonIsNoPortFound(packetDropped)
attr title "packets dropped (wrong port), count"
vector 37 UseCase.DSTT.udp droppedPkBadChecksum:vector(count) ETV
attr interpolationmode none
attr recordingmode vector(count)
attr source packetDropReasonIsIncorrectlyReceived(packetDropped)
attr title "packets dropped (checksum error), count"
vector 38 UseCase.NSTT.eth[0].macLayer.queue queueLength:vector ETV
attr autoWarmupFilter false
attr interpolationmode sample-hold
attr recordingmode vector
attr source "warmup(atomic(constant0(packetPushEnded) + count(packetPushStarted) - count(packetPulled) - count(packetRemoved) - count(packetDropped)))"
attr title "queue length"
attr unit pk
vector 39 UseCase.NSTT.eth[0].macLayer.queue queueBitLength:vector ETV
attr autoWarmupFilter false
attr interpolationmode sample-hold
attr recordingmode vector
attr source "warmup(atomic(constant0(packetPushEnded) + sum(packetLength(packetPushStarted)) - sum(packetLength(packetPulled)) - sum(packetLength(packetRemoved)) - sum(packetLength(packetDropped))))"
attr title "queue bit length"
attr unit b
vector 40 UseCase.NSTT.eth[0].phyLayer.interFrameGapInserter interpacketGap:vector ETV
attr interpolationmode sample-hold
attr recordingmode vector
attr source "count(interpacketGapStarted) - count(interpacketGapEnded)"
attr title "interpacket gap state"
attr type int
vector 41 UseCase.NSTT.eth[0].phyLayer.transmitter transmitting:vector ETV
attr interpolationmode sample-hold
attr recordingmode vector
attr source "count(transmissionStarted) - count(transmissionEnded)"
attr title "transmitting state"
attr type int
vector 42 UseCase.NSTT.eth[1].macLayer.queue queueLength:vector ETV
attr autoWarmupFilter false
attr interpolationmode sample-hold
attr recordingmode vector
attr source "warmup(atomic(constant0(packetPushEnded) + count(packetPushStarted) - count(packetPulled) - count(packetRemoved) - count(packetDropped)))"
attr title "queue length"
attr unit pk
vector 43 UseCase.NSTT.eth[1].macLayer.queue queueBitLength:vector ETV
attr autoWarmupFilter false
attr interpolationmode sample-hold
attr recordingmode vector
attr source "warmup(atomic(constant0(packetPushEnded) + sum(packetLength(packetPushStarted)) - sum(packetLength(packetPulled)) - sum(packetLength(packetRemoved)) - sum(packetLength(packetDropped))))"
attr title "queue bit length"
attr unit b
vector 44 UseCase.NSTT.eth[1].phyLayer.interFrameGapInserter interpacketGap:vector ETV
attr interpolationmode sample-hold
attr recordingmode vector
attr source "count(interpacketGapStarted) - count(interpacketGapEnded)"
attr title "interpacket gap state"
attr type int
vector 45 UseCase.NSTT.eth[1].phyLayer.transmitter transmitting:vector ETV
attr interpolationmode sample-hold
attr recordingmode vector
attr source "count(transmissionStarted) - count(transmissionEnded)"
attr title "transmitting state"
attr type int
vector 46 UseCase.NSTT.udp passedUpPk:vector(count) ETV
attr interpolationmode none
attr recordingmode vector(count)
attr source packetSentToUpper
attr title "packets passed up, count"
vector 47 UseCase.NSTT.udp droppedPkWrongPort:vector(count) ETV
attr interpolationmode none
attr recordingmode vector(count)
attr source packetDropReasonIsNoPortFound(packetDropped)
attr title "packets dropped (wrong port), count"
vector 48 UseCase.NSTT.udp droppedPkBadChecksum:vector(count) ETV
attr interpolationmode none
attr recordingmode vector(count)
attr source packetDropReasonIsIncorrectlyReceived(packetDropped)
attr title "packets dropped (checksum error), count"
vector 49 UseCase.TsnDS.eth[0].macLayer.queue queueLength:vector ETV
attr autoWarmupFilter false
attr interpolationmode sample-hold
attr recordingmode vector
attr source "warmup(atomic(constant0(packetPushEnded) + count(packetPushStarted) - count(packetPulled) - count(packetRemoved) - count(packetDropped)))"
attr title "queue length"
attr unit pk
vector 50 UseCase.TsnDS.eth[0].macLayer.queue queueBitLength:vector ETV
attr autoWarmupFilter false
attr interpolationmode sample-hold
attr recordingmode vector
attr source "warmup(atomic(constant0(packetPushEnded) + sum(packetLength(packetPushStarted)) - sum(packetLength(packetPulled)) - sum(packetLength(packetRemoved)) - sum(packetLength(packetDropped))))"
attr title "queue bit length"
attr unit b
vector 51 UseCase.TsnDS.eth[0].phyLayer.interFrameGapInserter interpacketGap:vector ETV
attr interpolationmode sample-hold
attr recordingmode vector
attr source "count(interpacketGapStarted) - count(interpacketGapEnded)"
attr title "interpacket gap state"
attr type int
vector 52 UseCase.TsnDS.eth[0].phyLayer.transmitter transmitting:vector ETV
attr interpolationmode sample-hold
attr recordingmode vector
attr source "count(transmissionStarted) - count(transmissionEnded)"
attr title "transmitting state"
attr type int
vector 53 UseCase.TsnDS.udp passedUpPk:vector(count) ETV
attr interpolationmode none
attr recordingmode vector(count)
attr source packetSentToUpper
attr title "packets passed up, count"
vector 54 UseCase.TsnDS.udp droppedPkWrongPort:vector(count) ETV
attr interpolationmode none
attr recordingmode vector(count)
attr source packetDropReasonIsNoPortFound(packetDropped)
attr title "packets dropped (wrong port), count"
vector 55 UseCase.TsnDS.udp droppedPkBadChecksum:vector(count) ETV
attr interpolationmode none
attr recordingmode vector(count)
attr source packetDropReasonIsIncorrectlyReceived(packetDropped)
attr title "packets dropped (checksum error), count"
vector 56 UseCase.switch5GC.eth[0].macLayer.queue queueLength:vector ETV
attr autoWarmupFilter false
attr interpolationmode sample-hold
attr recordingmode vector
attr source "warmup(atomic(constant0(packetPushEnded) + count(packetPushStarted) - count(packetPulled) - count(packetRemoved) - count(packetDropped)))"
attr title "queue length"
attr unit pk
vector 57 UseCase.switch5GC.eth[0].macLayer.queue queueBitLength:vector ETV
attr autoWarmupFilter false
attr interpolationmode sample-hold
attr recordingmode vector
attr source "warmup(atomic(constant0(packetPushEnded) + sum(packetLength(packetPushStarted)) - sum(packetLength(packetPulled)) - sum(packetLength(packetRemoved)) - sum(packetLength(packetDropped))))"
attr title "queue bit length"
attr unit b
vector 58 UseCase.switch5GC.eth[0].phyLayer.interFrameGapInserter interpacketGap:vector ETV
attr interpolationmode sample-hold
attr recordingmode vector
attr source "count(interpacketGapStarted) - count(interpacketGapEnded)"
attr title "interpacket gap state"
attr type int
vector 59 UseCase.switch5GC.eth[0].phyLayer.transmitter transmitting:vector ETV
attr interpolationmode sample-hold
attr recordingmode vector
attr source "count(transmissionStarted) - count(transmissionEnded)"
attr title "transmitting state"
attr type int
vector 60 UseCase.switch5GC.eth[1].macLayer.queue queueLength:vector ETV
attr autoWarmupFilter false
attr interpolationmode sample-hold
attr recordingmode vector
attr source "warmup(atomic(constant0(packetPushEnded) + count(packetPushStarted) - count(packetPulled) - count(packetRemoved) - count(packetDropped)))"
attr title "queue length"
attr unit pk
vector 61 UseCase.switch5GC.eth[1].macLayer.queue queueBitLength:vector ETV
attr autoWarmupFilter false
attr interpolationmode sample-hold
attr recordingmode vector
attr source "warmup(atomic(constant0(packetPushEnded) + sum(packetLength(packetPushStarted)) - sum(packetLength(packetPulled)) - sum(packetLength(packetRemoved)) - sum(packetLength(packetDropped))))"
attr title "queue bit length"
attr unit b
vector 62 UseCase.switch5GC.eth[1].phyLayer.interFrameGapInserter interpacketGap:vector ETV
attr interpolationmode sample-hold
attr recordingmode vector
attr source "count(interpacketGapStarted) - count(interpacketGapEnded)"
attr title "interpacket gap state"
attr type int
vector 63 UseCase.switch5GC.eth[1].phyLayer.transmitter transmitting:vector ETV
attr interpolationmode sample-hold
attr recordingmode vector
attr source "count(transmissionStarted) - count(transmissionEnded)"
attr title "transmitting state"
attr type int
vector 64 UseCase.switchTSN.eth[0].macLayer.queue queueLength:vector ETV
attr autoWarmupFilter false
attr interpolationmode sample-hold
attr recordingmode vector
attr source "warmup(atomic(constant0(packetPushEnded) + count(packetPushStarted) - count(packetPulled) - count(packetRemoved) - count(packetDropped)))"
attr title "queue length"
attr unit pk
vector 65 UseCase.switchTSN.eth[0].macLayer.queue queueBitLength:vector ETV
attr autoWarmupFilter false
attr interpolationmode sample-hold
attr recordingmode vector
attr source "warmup(atomic(constant0(packetPushEnded) + sum(packetLength(packetPushStarted)) - sum(packetLength(packetPulled)) - sum(packetLength(packetRemoved)) - sum(packetLength(packetDropped))))"
attr title "queue bit length"
attr unit b
vector 66 UseCase.switchTSN.eth[0].phyLayer.interFrameGapInserter interpacketGap:vector ETV
attr interpolationmode sample-hold
attr recordingmode vector
attr source "count(interpacketGapStarted) - count(interpacketGapEnded)"
attr title "interpacket gap state"
attr type int
vector 67 UseCase.switchTSN.eth[0].phyLayer.transmitter transmitting:vector ETV
attr interpolationmode sample-hold
attr recordingmode vector
attr source "count(transmissionStarted) - count(transmissionEnded)"
attr title "transmitting state"
attr type int
vector 68 UseCase.switchTSN.eth[1].macLayer.queue queueLength:vector ETV
attr autoWarmupFilter false
attr interpolationmode sample-hold
attr recordingmode vector
attr source "warmup(atomic(constant0(packetPushEnded) + count(packetPushStarted) - count(packetPulled) - count(packetRemoved) - count(packetDropped)))"
attr title "queue length"
attr unit pk
vector 69 UseCase.switchTSN.eth[1].macLayer.queue queueBitLength:vector ETV
attr autoWarmupFilter false
attr interpolationmode sample-hold
attr recordingmode vector
attr source "warmup(atomic(constant0(packetPushEnded) + sum(packetLength(packetPushStarted)) - sum(packetLength(packetPulled)) - sum(packetLength(packetRemoved)) - sum(packetLength(packetDropped))))"
attr title "queue bit length"
attr unit b
vector 70 UseCase.switchTSN.eth[1].phyLayer.interFrameGapInserter interpacketGap:vector ETV
attr interpolationmode sample-hold
attr recordingmode vector
attr source "count(interpacketGapStarted) - count(interpacketGapEnded)"
attr title "interpacket gap state"
attr type int
vector 71 UseCase.switchTSN.eth[1].phyLayer.transmitter transmitting:vector ETV
attr interpolationmode sample-hold
attr recordingmode vector
attr source "count(transmissionStarted) - count(transmissionEnded)"
attr title "transmitting state"
attr type int
vector 72 UseCase.TsnNS.eth[0].macLayer.queue queueLength:vector ETV
attr autoWarmupFilter false
attr interpolationmode sample-hold
attr recordingmode vector
attr source "warmup(atomic(constant0(packetPushEnded) + count(packetPushStarted) - count(packetPulled) - count(packetRemoved) - count(packetDropped)))"
attr title "queue length"
attr unit pk
vector 73 UseCase.TsnNS.eth[0].macLayer.queue queueBitLength:vector ETV
attr autoWarmupFilter false
attr interpolationmode sample-hold
attr recordingmode vector
attr source "warmup(atomic(constant0(packetPushEnded) + sum(packetLength(packetPushStarted)) - sum(packetLength(packetPulled)) - sum(packetLength(packetRemoved)) - sum(packetLength(packetDropped))))"
attr title "queue bit length"
attr unit b
vector 74 UseCase.TsnNS.eth[0].phyLayer.interFrameGapInserter interpacketGap:vector ETV
attr interpolationmode sample-hold
attr recordingmode vector
attr source "count(interpacketGapStarted) - count(interpacketGapEnded)"
attr title "interpacket gap state"
attr type int
vector 75 UseCase.TsnNS.eth[0].phyLayer.transmitter transmitting:vector ETV
attr interpolationmode sample-hold
attr recordingmode vector
attr source "count(transmissionStarted) - count(transmissionEnded)"
attr title "transmitting state"
attr type int
vector 76 UseCase.TsnNS.udp passedUpPk:vector(count) ETV
attr interpolationmode none
attr recordingmode vector(count)
attr source packetSentToUpper
attr title "packets passed up, count"
vector 77 UseCase.TsnNS.udp droppedPkWrongPort:vector(count) ETV
attr interpolationmode none
attr recordingmode vector(count)
attr source packetDropReasonIsNoPortFound(packetDropped)
attr title "packets dropped (wrong port), count"
vector 78 UseCase.TsnNS.udp droppedPkBadChecksum:vector(count) ETV
attr interpolationmode none
attr recordingmode vector(count)
attr source packetDropReasonIsIncorrectlyReceived(packetDropped)
attr title "packets dropped (checksum error), count"
vector 79 UseCase.ue.cellularNic.phy servingCell:vector ETV
attr recordingmode vector
attr source servingCell
attr title "ID of the serving eNodeB for the UE"
attr unit ""
vector 80 UseCase.ue.cellularNic.nrPhy servingCell:vector ETV
attr recordingmode vector
attr source servingCell
attr title "ID of the serving eNodeB for the UE"
attr unit ""
0	24834 40 0 0 0 0 5 0 0 0 0
1	24874 40 0 0 0 0 5 0 0 0 0
2	24914 40 0 0 0 0 5 0 0 0 0
3	24954 40 0 0 0 0 5 0 0 0 0
4	24994 16 0 0 0 0 2 0 0 0 0
5	25010 16 0 0 0 0 2 0 0 0 0
6	25026 8 0 0 0 0 1 0 0 0 0
7	25034 8 0 0 0 0 1 0 0 0 0
8	25042 8 0 0 0 0 1 0 0 0 0
9	25050 40 0 0 0 0 5 0 0 0 0
10	25090 45 0 0 0 0 5 0 0 0 0
11	25135 9 0 0 0 0 1 0 0 0 0
12	25144 45 0 0 0 0 5 0 0 0 0
13	25189 45 0 0 0 0 5 0 0 0 0
14	25234 9 0 0 0 0 1 0 0 0 0
15	25243 9 0 0 0 0 1 0 0 0 0
16	25252 9 0 0 0 0 1 0 0 0 0
17	25261 9 0 0 0 0 1 0 0 0 0
18	25270 45 0 0 0 0 5 0 0 0 0
19	25315 45 0 0 0 0 5 0 0 0 0
20	25360 18 0 0 0 0 2 0 0 0 0
21	25378 18 0 0 0 0 2 0 0 0 0
22	25396 45 0 0 0 0 5 0 0 0 0
23	25441 45 0 0 0 0 5 0 0 0 0
24	25486 9 0 0 0 0 1 0 0 0 0
25	25495 9 0 0 0 0 1 0 0 0 0
26	25504 9 0 0 0 0 1 0 0 0 0
27	25513 45 0 0 0 0 5 0 0 0 0
28	25558 45 0 0 0 0 5 0 0 0 0
29	25603 18 0 0 0 0 2 0 0 0 0
30	25621 18 0 0 0 0 2 0 0 0 0
31	25639 45 0 0 0 0 5 0 0 0 0
32	25684 45 0 0 0 0 5 0 0 0 0
33	25729 18 0 0 0 0 2 0 0 0 0
34	25747 18 0 0 0 0 2 0 0 0 0
35	25765 9 0 0 0 0 1 0 0 0 0
36	25774 9 0 0 0 0 1 0 0 0 0
37	25783 9 0 0 0 0 1 0 0 0 0
38	25792 45 0 0 0 0 5 0 0 0 0
39	25837 45 0 0 0 0 5 0 0 0 0
40	25882 18 0 0 0 0 2 0 0 0 0
41	25900 18 0 0 0 0 2 0 0 0 0
42	25918 45 0 0 0 0 5 0 0 0 0
43	25963 45 0 0 0 0 5 0 0 0 0
44	26008 18 0 0 0 0 2 0 0 0 0
45	26026 18 0 0 0 0 2 0 0 0 0
46	26044 9 0 0 0 0 1 0 0 0 0
47	26053 9 0 0 0 0 1 0 0 0 0
48	26062 9 0 0 0 0 1 0 0 0 0
49	26071 45 0 0 0 0 5 0 0 0 0
50	26116 45 0 0 0 0 5 0 0 0 0
51	26161 18 0 0 0 0 2 0 0 0 0
52	26179 18 0 0 0 0 2 0 0 0 0
53	26197 9 0 0 0 0 1 0 0 0 0
54	26206 9 0 0 0 0 1 0 0 0 0
55	26215 9 0 0 0 0 1 0 0 0 0
56	26224 45 0 0 0 0 5 0 0 0 0
57	26269 45 0 0 0 0 5 0 0 0 0
58	26314 18 0 0 0 0 2 0 0 0 0
59	26332 18 0 0 0 0 2 0 0 0 0
60	26350 45 0 0 0 0 5 0 0 0 0
61	26395 45 0 0 0 0 5 0 0 0 0
62	26440 18 0 0 0 0 2 0 0 0 0
63	26458 18 0 0 0 0 2 0 0 0 0
64	26476 45 0 0 0 0 5 0 0 0 0
65	26521 45 0 0 0 0 5 0 0 0 0
66	26566 18 0 0 0 0 2 0 0 0 0
67	26584 18 0 0 0 0 2 0 0 0 0
68	26602 45 0 0 0 0 5 0 0 0 0
69	26647 45 0 0 0 0 5 0 0 0 0
70	26692 18 0 0 0 0 2 0 0 0 0
71	26710 18 0 0 0 0 2 0 0 0 0
72	26728 45 0 0 0 0 5 0 0 0 0
73	26773 45 0 0 0 0 5 0 0 0 0
74	26818 18 0 0 0 0 2 0 0 0 0
75	26836 18 0 0 0 0 2 0 0 0 0
76	26854 9 0 0 0 0 1 0 0 0 0
77	26863 9 0 0 0 0 1 0 0 0 0
78	26872 9 0 0 0 0 1 0 0 0 0
79	26881 9 0 0 0 0 1 0 0 0 0
80	26890 9 0 0 0 0 1 1 1 1 1

